<?xml version="1.0" encoding="UTF-8"?>

<!-- generated on 10/30/20 17:20:20 by Eclipse SUMO sumo Version 1.7.0
<configuration xmlns:xsi="http://www.w3.org/2001/XMLSchema-instance" xsi:noNamespaceSchemaLocation="http://sumo.dlr.de/xsd/sumoConfiguration.xsd">

    <input>
        <net-file value="D:\Dirtywork\WC\Project\c6r.net.xml"/>
        <route-files value="D:\Dirtywork\WC\Project\routes.xml"/>
        <additional-files value="C:\Users\harsh\Sumo\2020-10-30-09-57-25\osm.poly.xml"/>
    </input>

    <output>
        <netstate-dump value="c6r.net.xml"/>
        <fcd-output value="c6r.xml"/>
        <fcd-output.geo value="true"/>
    </output>

    <time>
        <begin value="0"/>
        <end value="200"/>
    </time>

    <processing>
        <ignore-route-errors value="true"/>
    </processing>

    <routing>
        <device.rerouting.adaptation-steps value="180"/>
    </routing>

    <report>
        <verbose value="true"/>
        <duration-log.statistics value="true"/>
        <no-step-log value="true"/>
    </report>

    <gui_only>
        <gui-settings-file value="C:\Users\harsh\Sumo\2020-10-30-09-57-25\osm.view.xml"/>
    </gui_only>

</configuration>
-->

<netstate xmlns:xsi="http://www.w3.org/2001/XMLSchema-instance" xsi:noNamespaceSchemaLocation="http://sumo.dlr.de/xsd/netstate_file.xsd">
    <timestep time="0.00">
        <edge id="-166481851#0">
            <lane id="-166481851#0_0">
                <vehicle id="62.0" pos="60.33" speed="2.85"/>
            </lane>
        </edge>
        <edge id="-167046552#3">
            <lane id="-167046552#3_0">
                <vehicle id="50.0" pos="8.73" speed="13.85"/>
            </lane>
        </edge>
        <edge id="-167046553#0">
            <lane id="-167046553#0_0">
                <vehicle id="63.0" pos="0.04" speed="0.16"/>
            </lane>
        </edge>
        <edge id="-167046553#4">
            <lane id="-167046553#4_0">
                <vehicle id="6.0" pos="102.01" speed="19.97"/>
            </lane>
        </edge>
        <edge id="-167050545#4">
            <lane id="-167050545#4_0">
                <vehicle id="47.0" pos="14.41" speed="15.17"/>
            </lane>
        </edge>
        <edge id="-167050545#7">
            <lane id="-167050545#7_0">
                <vehicle id="68.0" pos="0.11" speed="0.09"/>
            </lane>
        </edge>
        <edge id="-167051092#0">
            <lane id="-167051092#0_0">
                <vehicle id="80.0" pos="16.82" speed="14.50"/>
            </lane>
        </edge>
        <edge id="-167051092#5">
            <lane id="-167051092#5_0">
                <vehicle id="22.0" pos="25.77" speed="12.87"/>
            </lane>
        </edge>
        <edge id="-167051093#1">
            <lane id="-167051093#1_0">
                <vehicle id="67.0" pos="14.70" speed="13.02"/>
            </lane>
        </edge>
        <edge id="-167051097#2">
            <lane id="-167051097#2_0">
                <vehicle id="13.0" pos="7.26" speed="18.47"/>
            </lane>
        </edge>
        <edge id="-167051098#3">
            <lane id="-167051098#3_0">
                <vehicle id="88.0" pos="72.22" speed="14.48"/>
            </lane>
        </edge>
        <edge id="-167449503#0">
            <lane id="-167449503#0_0">
                <vehicle id="23.0" pos="0.01" speed="3.88"/>
            </lane>
        </edge>
        <edge id="-167449536#1">
            <lane id="-167449536#1_0">
                <vehicle id="45.0" pos="12.95" speed="22.90"/>
            </lane>
        </edge>
        <edge id="-167449536#2">
            <lane id="-167449536#2_0">
                <vehicle id="53.0" pos="279.17" speed="18.90"/>
            </lane>
        </edge>
        <edge id="-167454980#5">
            <lane id="-167454980#5_0">
                <vehicle id="77.0" pos="3.65" speed="14.52"/>
            </lane>
        </edge>
        <edge id="-317776721#0">
            <lane id="-317776721#0_0">
                <vehicle id="29.0" pos="18.35" speed="17.10"/>
            </lane>
        </edge>
        <edge id="-317779045#1">
            <lane id="-317779045#1_0">
                <vehicle id="28.0" pos="25.08" speed="22.45"/>
            </lane>
        </edge>
        <edge id="-358334882#0">
            <lane id="-358334882#0_0">
                <vehicle id="94.0" pos="1.38" speed="8.13"/>
            </lane>
        </edge>
        <edge id="-362907721">
            <lane id="-362907721_0">
                <vehicle id="74.0" pos="15.04" speed="26.12"/>
            </lane>
        </edge>
        <edge id="-36877671#1">
            <lane id="-36877671#1_0">
                <vehicle id="35.0" pos="16.60" speed="12.94"/>
            </lane>
        </edge>
        <edge id="-37142793#1">
            <lane id="-37142793#1_0">
                <vehicle id="84.0" pos="28.78" speed="13.43"/>
            </lane>
        </edge>
        <edge id="-37142793#3">
            <lane id="-37142793#3_0">
                <vehicle id="5.0" pos="32.88" speed="15.11"/>
            </lane>
        </edge>
        <edge id="-37142793#4">
            <lane id="-37142793#4_0">
                <vehicle id="8.0" pos="29.47" speed="7.93"/>
            </lane>
        </edge>
        <edge id="-37358088#0">
            <lane id="-37358088#0_0">
                <vehicle id="81.0" pos="62.45" speed="13.82"/>
                <vehicle id="33.0" pos="85.40" speed="13.18"/>
                <vehicle id="21.0" pos="121.94" speed="13.77"/>
            </lane>
        </edge>
        <edge id="-37358088#1">
            <lane id="-37358088#1_0">
                <vehicle id="79.0" pos="10.27" speed="13.64"/>
            </lane>
        </edge>
        <edge id="-37358090#0">
            <lane id="-37358090#0_0">
                <vehicle id="83.0" pos="0.14" speed="6.37"/>
            </lane>
        </edge>
        <edge id="-37358090#14">
            <lane id="-37358090#14_0">
                <vehicle id="96.0" pos="496.33" speed="22.44"/>
            </lane>
        </edge>
        <edge id="-37358090#9">
            <lane id="-37358090#9_0">
                <vehicle id="39.0" pos="6.69" speed="15.59"/>
            </lane>
        </edge>
        <edge id="-374254706#0">
            <lane id="-374254706#0_0">
                <vehicle id="52.0" pos="7.31" speed="12.18"/>
                <vehicle id="26.0" pos="56.11" speed="13.16"/>
            </lane>
        </edge>
        <edge id="-37574240#0">
            <lane id="-37574240#0_0">
                <vehicle id="1.0" pos="97.73" speed="13.03"/>
            </lane>
        </edge>
        <edge id="-451819208#2">
            <lane id="-451819208#2_0">
                <vehicle id="58.0" pos="0.19" speed="13.93"/>
            </lane>
        </edge>
        <edge id="-451819211#0">
            <lane id="-451819211#0_0">
                <vehicle id="65.0" pos="39.90" speed="14.11"/>
            </lane>
        </edge>
        <edge id="-451820856">
            <lane id="-451820856_0">
                <vehicle id="34.0" pos="22.97" speed="10.91"/>
            </lane>
        </edge>
        <edge id="-681302530">
            <lane id="-681302530_0">
                <vehicle id="78.0" pos="1.55" speed="14.34"/>
            </lane>
        </edge>
        <edge id="-681302534">
            <lane id="-681302534_0">
                <vehicle id="11.0" pos="34.94" speed="15.04"/>
            </lane>
        </edge>
        <edge id="-734352501#0">
            <lane id="-734352501#0_0">
                <vehicle id="25.0" pos="38.63" speed="13.00"/>
            </lane>
        </edge>
        <edge id="-734642636#1">
            <lane id="-734642636#1_0">
                <vehicle id="17.0" pos="74.01" speed="11.90"/>
            </lane>
        </edge>
        <edge id="166479614">
            <lane id="166479614_0">
                <vehicle id="42.0" pos="88.61" speed="32.77"/>
            </lane>
            <lane id="166479614_1"/>
        </edge>
        <edge id="166481851#1">
            <lane id="166481851#1_0">
                <vehicle id="92.0" pos="2.79" speed="11.58"/>
            </lane>
        </edge>
        <edge id="166482093#0">
            <lane id="166482093#0_0">
                <vehicle id="4.0" pos="73.42" speed="3.33"/>
            </lane>
            <lane id="166482093#0_1"/>
        </edge>
        <edge id="166482093#1">
            <lane id="166482093#1_0">
                <vehicle id="72.0" pos="32.05" speed="22.93"/>
            </lane>
            <lane id="166482093#1_1"/>
        </edge>
        <edge id="167045920#2">
            <lane id="167045920#2_0">
                <vehicle id="76.0" pos="2.42" speed="26.53"/>
            </lane>
        </edge>
        <edge id="167045920#4">
            <lane id="167045920#4_0">
                <vehicle id="97.0" pos="4.37" speed="25.18"/>
            </lane>
        </edge>
        <edge id="167045921#4">
            <lane id="167045921#4_0">
                <vehicle id="54.0" pos="44.93" speed="10.45"/>
            </lane>
        </edge>
        <edge id="167046543#5">
            <lane id="167046543#5_0">
                <vehicle id="86.0" pos="64.84" speed="27.11"/>
            </lane>
        </edge>
        <edge id="167046547#0">
            <lane id="167046547#0_0">
                <vehicle id="70.0" pos="17.95" speed="28.89"/>
            </lane>
        </edge>
        <edge id="167046552#5">
            <lane id="167046552#5_0">
                <vehicle id="56.0" pos="41.79" speed="14.12"/>
            </lane>
        </edge>
        <edge id="167046969#1">
            <lane id="167046969#1_0">
                <vehicle id="16.0" pos="78.20" speed="26.05"/>
            </lane>
        </edge>
        <edge id="167046969#2">
            <lane id="167046969#2_0">
                <vehicle id="73.0" pos="32.42" speed="27.03"/>
            </lane>
        </edge>
        <edge id="167046970#3">
            <lane id="167046970#3_0">
                <vehicle id="98.0" pos="44.23" speed="31.16"/>
            </lane>
        </edge>
        <edge id="167047659#0">
            <lane id="167047659#0_0">
                <vehicle id="31.0" pos="136.29" speed="21.22"/>
            </lane>
        </edge>
        <edge id="167047659#2">
            <lane id="167047659#2_0">
                <vehicle id="40.0" pos="5.17" speed="28.33"/>
            </lane>
        </edge>
        <edge id="167049958#0">
            <lane id="167049958#0_0">
                <vehicle id="41.0" pos="70.58" speed="14.86"/>
            </lane>
            <lane id="167049958#0_1"/>
        </edge>
        <edge id="167051092#0">
            <lane id="167051092#0_0">
                <vehicle id="59.0" pos="14.59" speed="13.83"/>
            </lane>
        </edge>
        <edge id="167051097#1">
            <lane id="167051097#1_0">
                <vehicle id="24.0" pos="0.18" speed="0.02"/>
            </lane>
        </edge>
        <edge id="167051098#0">
            <lane id="167051098#0_0">
                <vehicle id="0.0" pos="86.10" speed="7.52"/>
            </lane>
        </edge>
        <edge id="167051609">
            <lane id="167051609_0">
                <vehicle id="27.0" pos="9.25" speed="28.28"/>
            </lane>
        </edge>
        <edge id="167448937#0">
            <lane id="167448937#0_0">
                <vehicle id="7.0" pos="27.41" speed="25.41"/>
            </lane>
            <lane id="167448937#0_1"/>
        </edge>
        <edge id="167448937#3">
            <lane id="167448937#3_0">
                <vehicle id="37.0" pos="23.77" speed="20.00"/>
            </lane>
            <lane id="167448937#3_1"/>
        </edge>
        <edge id="167449527">
            <lane id="167449527_0">
                <vehicle id="51.0" pos="23.22" speed="4.94"/>
            </lane>
        </edge>
        <edge id="167454980#1">
            <lane id="167454980#1_0">
                <vehicle id="20.0" pos="23.88" speed="24.95"/>
            </lane>
        </edge>
        <edge id="168132496#1">
            <lane id="168132496#1_0">
                <vehicle id="90.0" pos="76.30" speed="22.59"/>
            </lane>
        </edge>
        <edge id="168132497#0">
            <lane id="168132497#0_0">
                <vehicle id="2.0" pos="39.02" speed="19.80"/>
            </lane>
        </edge>
        <edge id="172126098#0">
            <lane id="172126098#0_0">
                <vehicle id="60.0" pos="30.68" speed="15.87"/>
            </lane>
        </edge>
        <edge id="172126968">
            <lane id="172126968_0">
                <vehicle id="69.0" pos="41.88" speed="3.24"/>
            </lane>
        </edge>
        <edge id="172156180">
            <lane id="172156180_0">
                <vehicle id="61.0" pos="10.70" speed="14.22"/>
            </lane>
        </edge>
        <edge id="317768264#4">
            <lane id="317768264#4_0">
                <vehicle id="46.0" pos="54.42" speed="2.00"/>
            </lane>
        </edge>
        <edge id="328550349">
            <lane id="328550349_0">
                <vehicle id="10.0" pos="11.04" speed="14.03"/>
            </lane>
        </edge>
        <edge id="328552372">
            <lane id="328552372_0">
                <vehicle id="15.0" pos="29.29" speed="12.31"/>
                <vehicle id="87.0" pos="60.69" speed="13.91"/>
            </lane>
        </edge>
        <edge id="358333511">
            <lane id="358333511_0">
                <vehicle id="9.0" pos="44.16" speed="14.20"/>
            </lane>
        </edge>
        <edge id="362907721">
            <lane id="362907721_0">
                <vehicle id="18.0" pos="1.06" speed="30.30"/>
            </lane>
        </edge>
        <edge id="37142793#2">
            <lane id="37142793#2_0">
                <vehicle id="32.0" pos="52.78" speed="5.59"/>
            </lane>
        </edge>
        <edge id="37142793#4">
            <lane id="37142793#4_0">
                <vehicle id="14.0" pos="30.34" speed="7.49"/>
            </lane>
        </edge>
        <edge id="37358088#2">
            <lane id="37358088#2_0">
                <vehicle id="82.0" pos="2.38" speed="6.66"/>
            </lane>
        </edge>
        <edge id="37358088#3">
            <lane id="37358088#3_0">
                <vehicle id="93.0" pos="9.88" speed="11.28"/>
                <vehicle id="19.0" pos="21.97" speed="14.26"/>
            </lane>
        </edge>
        <edge id="37358090#2">
            <lane id="37358090#2_0">
                <vehicle id="36.0" pos="1.24" speed="16.02"/>
            </lane>
        </edge>
        <edge id="37358090#3">
            <lane id="37358090#3_0">
                <vehicle id="66.0" pos="2.37" speed="21.93"/>
                <vehicle id="64.0" pos="54.69" speed="24.87"/>
            </lane>
        </edge>
        <edge id="374254706#1">
            <lane id="374254706#1_0">
                <vehicle id="3.0" pos="25.43" speed="9.40"/>
            </lane>
        </edge>
        <edge id="451542451#0">
            <lane id="451542451#0_0">
                <vehicle id="57.0" pos="108.88" speed="20.02"/>
            </lane>
        </edge>
        <edge id="451542451#1">
            <lane id="451542451#1_0">
                <vehicle id="38.0" pos="37.18" speed="7.98"/>
            </lane>
        </edge>
        <edge id="451819212#0">
            <lane id="451819212#0_0">
                <vehicle id="85.0" pos="125.58" speed="15.94"/>
            </lane>
        </edge>
        <edge id="681302530">
            <lane id="681302530_0">
                <vehicle id="12.0" pos="19.56" speed="9.03"/>
            </lane>
        </edge>
        <edge id="681302538#0">
            <lane id="681302538#0_0">
                <vehicle id="49.0" pos="4.66" speed="14.49"/>
            </lane>
        </edge>
        <edge id="734352501#0">
            <lane id="734352501#0_0">
                <vehicle id="91.0" pos="111.13" speed="12.39"/>
            </lane>
        </edge>
        <edge id="734642636#0">
            <lane id="734642636#0_0">
                <vehicle id="30.0" pos="276.45" speed="11.47"/>
            </lane>
        </edge>
        <edge id="758060856">
            <lane id="758060856_0">
                <vehicle id="48.0" pos="22.73" speed="14.41"/>
                <vehicle id="75.0" pos="57.77" speed="14.66"/>
            </lane>
        </edge>
        <edge id="758283602">
            <lane id="758283602_0">
                <vehicle id="43.0" pos="19.25" speed="15.31"/>
            </lane>
        </edge>
        <edge id="758836809">
            <lane id="758836809_0">
                <vehicle id="99.0" pos="39.53" speed="15.24"/>
            </lane>
        </edge>
    </timestep>
    <timestep time="1.00">
        <edge id=":1779258563_4">
            <lane id=":1779258563_4_0">
                <vehicle id="62.0" pos="0.10" speed="2.95"/>
            </lane>
        </edge>
        <edge id=":1784523564_1">
            <lane id=":1784523564_1_0">
                <vehicle id="63.0" pos="2.60" speed="2.76"/>
            </lane>
        </edge>
        <edge id=":1784566639_7">
            <lane id=":1784566639_7_0">
                <vehicle id="68.0" pos="2.18" speed="2.27"/>
            </lane>
        </edge>
        <edge id=":1830597925_6">
            <lane id=":1830597925_6_0">
                <vehicle id="69.0" pos="1.57" speed="4.82"/>
            </lane>
        </edge>
        <edge id=":1877203206_7">
            <lane id=":1877203206_7_0">
                <vehicle id="45.0" pos="4.10" speed="22.64"/>
            </lane>
        </edge>
        <edge id=":429230422_3">
            <lane id=":429230422_3_0">
                <vehicle id="83.0" pos="5.69" speed="5.76"/>
            </lane>
        </edge>
        <edge id=":436107022_1">
            <lane id=":436107022_1_0">
                <vehicle id="24.0" pos="2.51" speed="2.53"/>
            </lane>
        </edge>
        <edge id=":4486328023_7">
            <lane id=":4486328023_7_0">
                <vehicle id="58.0" pos="12.99" speed="13.00"/>
            </lane>
        </edge>
        <edge id=":6876979342_4">
            <lane id=":6876979342_4_0">
                <vehicle id="91.0" pos="8.94" speed="11.58"/>
            </lane>
        </edge>
        <edge id=":7053715020_7">
            <lane id=":7053715020_7_0">
                <vehicle id="57.0" pos="11.62" speed="19.19"/>
            </lane>
        </edge>
        <edge id="-167046552#3">
            <lane id="-167046552#3_0">
                <vehicle id="50.0" pos="21.53" speed="12.80"/>
            </lane>
        </edge>
        <edge id="-167046553#4">
            <lane id="-167046553#4_0">
                <vehicle id="6.0" pos="120.82" speed="18.81"/>
            </lane>
        </edge>
        <edge id="-167050545#4">
            <lane id="-167050545#4_0">
                <vehicle id="47.0" pos="28.61" speed="14.20"/>
            </lane>
        </edge>
        <edge id="-167051092#0">
            <lane id="-167051092#0_0">
                <vehicle id="80.0" pos="30.24" speed="13.41"/>
            </lane>
        </edge>
        <edge id="-167051092#5">
            <lane id="-167051092#5_0">
                <vehicle id="22.0" pos="38.51" speed="12.74"/>
            </lane>
        </edge>
        <edge id="-167051093#1">
            <lane id="-167051093#1_0">
                <vehicle id="67.0" pos="26.50" speed="11.80"/>
            </lane>
        </edge>
        <edge id="-167051097#2">
            <lane id="-167051097#2_0">
                <vehicle id="13.0" pos="24.44" speed="17.18"/>
                <vehicle id="44.0" pos="118.27" speed="18.63"/>
            </lane>
        </edge>
        <edge id="-167051098#3">
            <lane id="-167051098#3_0">
                <vehicle id="88.0" pos="86.24" speed="14.03"/>
            </lane>
        </edge>
        <edge id="-167449536#2">
            <lane id="-167449536#2_0">
                <vehicle id="53.0" pos="297.23" speed="18.06"/>
            </lane>
        </edge>
        <edge id="-167454980#5">
            <lane id="-167454980#5_0">
                <vehicle id="77.0" pos="18.59" speed="14.94"/>
            </lane>
        </edge>
        <edge id="-317776721#0">
            <lane id="-317776721#0_0">
                <vehicle id="29.0" pos="34.71" speed="16.36"/>
            </lane>
        </edge>
        <edge id="-317779045#1">
            <lane id="-317779045#1_0">
                <vehicle id="28.0" pos="47.29" speed="22.21"/>
            </lane>
        </edge>
        <edge id="-358334882#0">
            <lane id="-358334882#0_0">
                <vehicle id="94.0" pos="10.74" speed="9.37"/>
            </lane>
        </edge>
        <edge id="-362907721">
            <lane id="-362907721_0">
                <vehicle id="74.0" pos="41.05" speed="26.01"/>
            </lane>
        </edge>
        <edge id="-36877671#1">
            <lane id="-36877671#1_0">
                <vehicle id="35.0" pos="28.95" speed="12.35"/>
            </lane>
        </edge>
        <edge id="-37142793#1">
            <lane id="-37142793#1_0">
                <vehicle id="84.0" pos="41.81" speed="13.03"/>
            </lane>
        </edge>
        <edge id="-37142793#3">
            <lane id="-37142793#3_0">
                <vehicle id="5.0" pos="47.86" speed="14.98"/>
            </lane>
        </edge>
        <edge id="-37142793#4">
            <lane id="-37142793#4_0">
                <vehicle id="8.0" pos="38.41" speed="8.94"/>
            </lane>
        </edge>
        <edge id="-37358088#0">
            <lane id="-37358088#0_0">
                <vehicle id="81.0" pos="75.23" speed="12.77"/>
                <vehicle id="33.0" pos="97.60" speed="12.21"/>
                <vehicle id="21.0" pos="135.63" speed="13.69"/>
            </lane>
        </edge>
        <edge id="-37358088#1">
            <lane id="-37358088#1_0">
                <vehicle id="79.0" pos="23.82" speed="13.55"/>
            </lane>
        </edge>
        <edge id="-37358090#14">
            <lane id="-37358090#14_0">
                <vehicle id="96.0" pos="517.57" speed="21.24"/>
            </lane>
        </edge>
        <edge id="-37358090#9">
            <lane id="-37358090#9_0">
                <vehicle id="39.0" pos="20.99" speed="14.30"/>
            </lane>
        </edge>
        <edge id="-374254706#0">
            <lane id="-374254706#0_0">
                <vehicle id="52.0" pos="19.41" speed="12.11"/>
                <vehicle id="26.0" pos="69.19" speed="13.08"/>
            </lane>
        </edge>
        <edge id="-37574240#0">
            <lane id="-37574240#0_0">
                <vehicle id="1.0" pos="110.50" speed="12.77"/>
            </lane>
        </edge>
        <edge id="-451819211#0">
            <lane id="-451819211#0_0">
                <vehicle id="65.0" pos="53.20" speed="13.30"/>
            </lane>
        </edge>
        <edge id="-451820856">
            <lane id="-451820856_0">
                <vehicle id="34.0" pos="33.33" speed="10.36"/>
            </lane>
        </edge>
        <edge id="-681302530">
            <lane id="-681302530_0">
                <vehicle id="78.0" pos="15.08" speed="13.53"/>
            </lane>
        </edge>
        <edge id="-681302534">
            <lane id="-681302534_0">
                <vehicle id="11.0" pos="49.40" speed="14.46"/>
            </lane>
        </edge>
        <edge id="-734352501#0">
            <lane id="-734352501#0_0">
                <vehicle id="25.0" pos="50.48" speed="11.85"/>
            </lane>
        </edge>
        <edge id="-734642636#1">
            <lane id="-734642636#1_0">
                <vehicle id="17.0" pos="85.34" speed="11.33"/>
            </lane>
        </edge>
        <edge id="166479614">
            <lane id="166479614_0"/>
            <lane id="166479614_1">
                <vehicle id="42.0" pos="121.03" speed="32.42"/>
            </lane>
        </edge>
        <edge id="166481851#1">
            <lane id="166481851#1_0">
                <vehicle id="92.0" pos="13.71" speed="10.92"/>
            </lane>
        </edge>
        <edge id="166482093#0">
            <lane id="166482093#0_0">
                <vehicle id="95.0" pos="74.56" speed="2.19"/>
            </lane>
            <lane id="166482093#0_1">
                <vehicle id="4.0" pos="76.27" speed="2.86"/>
            </lane>
        </edge>
        <edge id="166482093#1">
            <lane id="166482093#1_0">
                <vehicle id="89.0" pos="58.58" speed="17.63"/>
            </lane>
            <lane id="166482093#1_1">
                <vehicle id="72.0" pos="54.75" speed="22.70"/>
            </lane>
        </edge>
        <edge id="167045921#0">
            <lane id="167045921#0_0">
                <vehicle id="97.0" pos="15.10" speed="24.57"/>
            </lane>
        </edge>
        <edge id="167045921#4">
            <lane id="167045921#4_0">
                <vehicle id="54.0" pos="54.46" speed="9.53"/>
            </lane>
        </edge>
        <edge id="167045926#0">
            <lane id="167045926#0_0">
                <vehicle id="76.0" pos="3.01" speed="26.05"/>
            </lane>
        </edge>
        <edge id="167046543#5">
            <lane id="167046543#5_0">
                <vehicle id="86.0" pos="91.74" speed="26.90"/>
            </lane>
        </edge>
        <edge id="167046547#0">
            <lane id="167046547#0_0">
                <vehicle id="70.0" pos="44.12" speed="26.17"/>
            </lane>
        </edge>
        <edge id="167046552#5">
            <lane id="167046552#5_0">
                <vehicle id="56.0" pos="54.76" speed="12.96"/>
            </lane>
        </edge>
        <edge id="167046969#1">
            <lane id="167046969#1_0">
                <vehicle id="16.0" pos="103.52" speed="25.32"/>
            </lane>
        </edge>
        <edge id="167046969#2">
            <lane id="167046969#2_0">
                <vehicle id="73.0" pos="59.28" speed="26.86"/>
            </lane>
        </edge>
        <edge id="167046970#3">
            <lane id="167046970#3_0">
                <vehicle id="98.0" pos="74.61" speed="30.38"/>
            </lane>
        </edge>
        <edge id="167047659#0">
            <lane id="167047659#0_0">
                <vehicle id="31.0" pos="153.01" speed="16.72"/>
            </lane>
        </edge>
        <edge id="167047659#2">
            <lane id="167047659#2_0">
                <vehicle id="40.0" pos="33.26" speed="28.09"/>
            </lane>
        </edge>
        <edge id="167049958#0">
            <lane id="167049958#0_0"/>
            <lane id="167049958#0_1">
                <vehicle id="41.0" pos="84.72" speed="14.14"/>
            </lane>
        </edge>
        <edge id="167051092#0">
            <lane id="167051092#0_0">
                <vehicle id="59.0" pos="27.71" speed="13.13"/>
            </lane>
        </edge>
        <edge id="167051098#0">
            <lane id="167051098#0_0">
                <vehicle id="0.0" pos="93.27" speed="7.17"/>
            </lane>
        </edge>
        <edge id="167051609">
            <lane id="167051609_0">
                <vehicle id="27.0" pos="37.52" speed="28.27"/>
            </lane>
        </edge>
        <edge id="167448937#0">
            <lane id="167448937#0_0">
                <vehicle id="7.0" pos="52.54" speed="25.13"/>
            </lane>
            <lane id="167448937#0_1"/>
        </edge>
        <edge id="167448937#3">
            <lane id="167448937#3_0"/>
            <lane id="167448937#3_1">
                <vehicle id="37.0" pos="43.39" speed="19.62"/>
            </lane>
        </edge>
        <edge id="167449527">
            <lane id="167449527_0">
                <vehicle id="51.0" pos="27.23" speed="4.01"/>
            </lane>
        </edge>
        <edge id="167449531#3">
            <lane id="167449531#3_0">
                <vehicle id="23.0" pos="0.00" speed="3.83"/>
            </lane>
        </edge>
        <edge id="167454980#1">
            <lane id="167454980#1_0">
                <vehicle id="20.0" pos="47.55" speed="23.67"/>
            </lane>
        </edge>
        <edge id="168132496#1">
            <lane id="168132496#1_0">
                <vehicle id="90.0" pos="98.12" speed="21.82"/>
            </lane>
        </edge>
        <edge id="168132497#0">
            <lane id="168132497#0_0">
                <vehicle id="2.0" pos="57.53" speed="18.51"/>
            </lane>
        </edge>
        <edge id="172126098#0">
            <lane id="172126098#0_0">
                <vehicle id="60.0" pos="46.38" speed="15.70"/>
            </lane>
        </edge>
        <edge id="172156180">
            <lane id="172156180_0">
                <vehicle id="61.0" pos="24.74" speed="14.04"/>
            </lane>
        </edge>
        <edge id="317768264#4">
            <lane id="317768264#4_0">
                <vehicle id="46.0" pos="56.03" speed="1.61"/>
            </lane>
        </edge>
        <edge id="328550349">
            <lane id="328550349_0">
                <vehicle id="10.0" pos="24.23" speed="13.19"/>
            </lane>
        </edge>
        <edge id="328552372">
            <lane id="328552372_0">
                <vehicle id="15.0" pos="41.45" speed="12.16"/>
                <vehicle id="87.0" pos="73.45" speed="12.76"/>
            </lane>
        </edge>
        <edge id="358333511">
            <lane id="358333511_0">
                <vehicle id="9.0" pos="57.78" speed="13.62"/>
            </lane>
        </edge>
        <edge id="362907721">
            <lane id="362907721_0">
                <vehicle id="18.0" pos="31.33" speed="30.28"/>
            </lane>
        </edge>
        <edge id="37142793#2">
            <lane id="37142793#2_0">